[
  {
    "AtomicNumber": 1,
    "Name": "Hydrogen",
    "Symbol": "H",
    "Mass": 1.00794,
    "MeltingPoint": -259,
    "BoilingPoint": -253,
    "Density": 0.09,
    "Abundance": 0.14,
    "Discovery": 1776,
    "ElectronConfiguration": "1s1",
    "Energy": 13.5984
  },
  {
    "AtomicNumber": 2,
    "Name": "Helium",
    "Symbol": "He",
    "Mass": 4.002602,
    "MeltingPoint": -272,
    "BoilingPoint": -269,
    "Density": 0.18,
    "Abundance": null,
    "Discovery": 1895,
    "ElectronConfiguration": "1s2",
    "Energy": 24.5874
  },
  {
    "AtomicNumber": 3,
    "Name": "Lithium",
    "Symbol": "Li",
    "Mass": 6.941,
    "MeltingPoint": 180,
    "BoilingPoint": 1347,
    "Density": 0.53,
    "Abundance": null,
    "Discovery": 1817,
    "ElectronConfiguration": "[He] 2s1",
    "Energy": 5.3917
  },
  {
    "AtomicNumber": 4,
    "Name": "Beryllium",
    "Symbol": "Be",
    "Mass": 9.012182,
    "MeltingPoint": 1278,
    "BoilingPoint": 2970,
    "Density": 1.85,
    "Abundance": null,
    "Discovery": 1797,
    "ElectronConfiguration": "[He] 2s2",
    "Energy": 9.3227
  },
  {
    "AtomicNumber": 5,
    "Name": "Boron",
    "Symbol": "B",
    "Mass": 10.811,
    "MeltingPoint": 2300,
    "BoilingPoint": 2550,
    "Density": 2.34,
    "Abundance": null,
    "Discovery": 1808,
    "ElectronConfiguration": "[He] 2s2 2p1",
    "Energy": 8.298
  },
  {
    "AtomicNumber": 6,
    "Name": "Carbon",
    "Symbol": "C",
    "Mass": 12.0107,
    "MeltingPoint": 3500,
    "BoilingPoint": 4827,
    "Density": 2.26,
    "Abundance": 0.094,
    "Discovery": null,
    "ElectronConfiguration": "[He] 2s2 2p2",
    "Energy": 11.2603
  },
  {
    "AtomicNumber": 7,
    "Name": "Nitrogen",
    "Symbol": "N",
    "Mass": 14.0067,
    "MeltingPoint": -210,
    "BoilingPoint": -196,
    "Density": 1.25,
    "Abundance": null,
    "Discovery": 1772,
    "ElectronConfiguration": "[He] 2s2 2p3",
    "Energy": 14.5341
  },
  {
    "AtomicNumber": 8,
    "Name": "Oxygen",
    "Symbol": "O",
    "Mass": 15.9994,
    "MeltingPoint": -218,
    "BoilingPoint": -183,
    "Density": 1.43,
    "Abundance": 46.71,
    "Discovery": 1774,
    "ElectronConfiguration": "[He] 2s2 2p4",
    "Energy": 13.6181
  },
  {
    "AtomicNumber": 9,
    "Name": "Fluorine",
    "Symbol": "F",
    "Mass": 18.998404,
    "MeltingPoint": -220,
    "BoilingPoint": -188,
    "Density": 1.7,
    "Abundance": 0.029,
    "Discovery": 1886,
    "ElectronConfiguration": "[He] 2s2 2p5",
    "Energy": 17.4228
  },
  {
    "AtomicNumber": 10,
    "Name": "Neon",
    "Symbol": "Ne",
    "Mass": 20.1797,
    "MeltingPoint": -249,
    "BoilingPoint": -246,
    "Density": 0.9,
    "Abundance": null,
    "Discovery": 1898,
    "ElectronConfiguration": "[He] 2s2 2p6",
    "Energy": 21.5645
  },
  {
    "AtomicNumber": 11,
    "Name": "Sodium",
    "Symbol": "Na",
    "Mass": 22.989769,
    "MeltingPoint": 98,
    "BoilingPoint": 883,
    "Density": 0.97,
    "Abundance": 2.75,
    "Discovery": 1807,
    "ElectronConfiguration": "[Ne] 3s1",
    "Energy": 5.1391
  },
  {
    "AtomicNumber": 12,
    "Name": "Magnesium",
    "Symbol": "Mg",
    "Mass": 24.305,
    "MeltingPoint": 639,
    "BoilingPoint": 1090,
    "Density": 1.74,
    "Abundance": 2.08,
    "Discovery": 1755,
    "ElectronConfiguration": "[Ne] 3s2",
    "Energy": 7.6462
  },
  {
    "AtomicNumber": 13,
    "Name": "Aluminium",
    "Symbol": "Al",
    "Mass": 26.981539,
    "MeltingPoint": 660,
    "BoilingPoint": 2467,
    "Density": 2.7,
    "Abundance": 8.07,
    "Discovery": 1825,
    "ElectronConfiguration": "[Ne] 3s2 3p1",
    "Energy": 5.9858
  },
  {
    "AtomicNumber": 14,
    "Name": "Silicon",
    "Symbol": "Si",
    "Mass": 28.0855,
    "MeltingPoint": 1410,
    "BoilingPoint": 2355,
    "Density": 2.33,
    "Abundance": 27.69,
    "Discovery": 1824,
    "ElectronConfiguration": "[Ne] 3s2 3p2",
    "Energy": 8.1517
  },
  {
    "AtomicNumber": 15,
    "Name": "Phosphorus",
    "Symbol": "P",
    "Mass": 30.973763,
    "MeltingPoint": 44,
    "BoilingPoint": 280,
    "Density": 1.82,
    "Abundance": 0.13,
    "Discovery": 1669,
    "ElectronConfiguration": "[Ne] 3s2 3p3",
    "Energy": 10.4867
  },
  {
    "AtomicNumber": 16,
    "Name": "Sulfur",
    "Symbol": "S",
    "Mass": 32.065,
    "MeltingPoint": 113,
    "BoilingPoint": 445,
    "Density": 2.07,
    "Abundance": 0.052,
    "Discovery": null,
    "ElectronConfiguration": "[Ne] 3s2 3p4",
    "Energy": 10.36
  },
  {
    "AtomicNumber": 17,
    "Name": "Chlorine",
    "Symbol": "Cl",
    "Mass": 35.453,
    "MeltingPoint": -101,
    "BoilingPoint": -35,
    "Density": 3.21,
    "Abundance": 0.045,
    "Discovery": 1774,
    "ElectronConfiguration": "[Ne] 3s2 3p5",
    "Energy": 12.9676
  },
  {
    "AtomicNumber": 18,
    "Name": "Argon",
    "Symbol": "Ar",
    "Mass": 39.948,
    "MeltingPoint": -189,
    "BoilingPoint": -186,
    "Density": 1.78,
    "Abundance": null,
    "Discovery": 1894,
    "ElectronConfiguration": "[Ne] 3s2 3p6",
    "Energy": 15.7596
  },
  {
    "AtomicNumber": 19,
    "Name": "Potassium",
    "Symbol": "K",
    "Mass": 39.0983,
    "MeltingPoint": 64,
    "BoilingPoint": 774,
    "Density": 0.86,
    "Abundance": 2.58,
    "Discovery": 1807,
    "ElectronConfiguration": "[Ar] 4s1",
    "Energy": 4.3407
  },
  {
    "AtomicNumber": 20,
    "Name": "Calcium",
    "Symbol": "Ca",
    "Mass": 40.078,
    "MeltingPoint": 839,
    "BoilingPoint": 1484,
    "Density": 1.55,
    "Abundance": 3.65,
    "Discovery": 1808,
    "ElectronConfiguration": "[Ar] 4s2",
    "Energy": 6.1132
  },
  {
    "AtomicNumber": 21,
    "Name": "Scandium",
    "Symbol": "Sc",
    "Mass": 44.955914,
    "MeltingPoint": 1539,
    "BoilingPoint": 2832,
    "Density": 2.99,
    "Abundance": null,
    "Discovery": 1879,
    "ElectronConfiguration": "[Ar] 3d1 4s2",
    "Energy": 6.5615
  },
  {
    "AtomicNumber": 22,
    "Name": "Titanium",
    "Symbol": "Ti",
    "Mass": 47.867,
    "MeltingPoint": 1660,
    "BoilingPoint": 3287,
    "Density": 4.54,
    "Abundance": 0.62,
    "Discovery": 1791,
    "ElectronConfiguration": "[Ar] 3d2 4s2",
    "Energy": 6.8281
  },
  {
    "AtomicNumber": 23,
    "Name": "Vanadium",
    "Symbol": "V",
    "Mass": 50.9415,
    "MeltingPoint": 1890,
    "BoilingPoint": 3380,
    "Density": 6.11,
    "Abundance": null,
    "Discovery": 1830,
    "ElectronConfiguration": "[Ar] 3d3 4s2",
    "Energy": 6.7462
  },
  {
    "AtomicNumber": 24,
    "Name": "Chromium",
    "Symbol": "Cr",
    "Mass": 51.9961,
    "MeltingPoint": 1857,
    "BoilingPoint": 2672,
    "Density": 7.19,
    "Abundance": 0.035,
    "Discovery": 1797,
    "ElectronConfiguration": "[Ar] 3d5 4s1",
    "Energy": 6.7665
  },
  {
    "AtomicNumber": 25,
    "Name": "Manganese",
    "Symbol": "Mn",
    "Mass": 54.938046,
    "MeltingPoint": 1245,
    "BoilingPoint": 1962,
    "Density": 7.43,
    "Abundance": 0.09,
    "Discovery": 1774,
    "ElectronConfiguration": "[Ar] 3d5 4s2",
    "Energy": 7.434
  },
  {
    "AtomicNumber": 26,
    "Name": "Iron",
    "Symbol": "Fe",
    "Mass": 55.845,
    "MeltingPoint": 1535,
    "BoilingPoint": 2750,
    "Density": 7.87,
    "Abundance": 5.05,
    "Discovery": null,
    "ElectronConfiguration": "[Ar] 3d6 4s2",
    "Energy": 7.9024
  },
  {
    "AtomicNumber": 27,
    "Name": "Cobalt",
    "Symbol": "Co",
    "Mass": 58.933193,
    "MeltingPoint": 1495,
    "BoilingPoint": 2870,
    "Density": 8.9,
    "Abundance": null,
    "Discovery": 1735,
    "ElectronConfiguration": "[Ar] 3d7 4s2",
    "Energy": 7.881
  },
  {
    "AtomicNumber": 28,
    "Name": "Nickel",
    "Symbol": "Ni",
    "Mass": 58.6934,
    "MeltingPoint": 1453,
    "BoilingPoint": 2732,
    "Density": 8.9,
    "Abundance": 0.019,
    "Discovery": 1751,
    "ElectronConfiguration": "[Ar] 3d8 4s2",
    "Energy": 7.6398
  },
  {
    "AtomicNumber": 29,
    "Name": "Copper",
    "Symbol": "Cu",
    "Mass": 63.546,
    "MeltingPoint": 1083,
    "BoilingPoint": 2567,
    "Density": 8.96,
    "Abundance": null,
    "Discovery": null,
    "ElectronConfiguration": "[Ar] 3d10 4s1",
    "Energy": 7.7264
  },
  {
    "AtomicNumber": 30,
    "Name": "Zinc",
    "Symbol": "Zn",
    "Mass": 65.38,
    "MeltingPoint": 420,
    "BoilingPoint": 907,
    "Density": 7.13,
    "Abundance": null,
    "Discovery": null,
    "ElectronConfiguration": "[Ar] 3d10 4s2",
    "Energy": 9.3942
  },
  {
    "AtomicNumber": 31,
    "Name": "Gallium",
    "Symbol": "Ga",
    "Mass": 69.723,
    "MeltingPoint": 30,
    "BoilingPoint": 2403,
    "Density": 5.91,
    "Abundance": null,
    "Discovery": 1875,
    "ElectronConfiguration": "[Ar] 3d10 4s2 4p1",
    "Energy": 5.9993
  },
  {
    "AtomicNumber": 32,
    "Name": "Germanium",
    "Symbol": "Ge",
    "Mass": 72.63,
    "MeltingPoint": 937,
    "BoilingPoint": 2830,
    "Density": 5.32,
    "Abundance": null,
    "Discovery": 1886,
    "ElectronConfiguration": "[Ar] 3d10 4s2 4p2",
    "Energy": 7.8994
  },
  {
    "AtomicNumber": 33,
    "Name": "Arsenic",
    "Symbol": "As",
    "Mass": 74.9216,
    "MeltingPoint": 81,
    "BoilingPoint": 613,
    "Density": 5.72,
    "Abundance": null,
    "Discovery": null,
    "ElectronConfiguration": "[Ar] 3d10 4s2 4p3",
    "Energy": 9.7886
  },
  {
    "AtomicNumber": 34,
    "Name": "Selenium",
    "Symbol": "Se",
    "Mass": 78.96,
    "MeltingPoint": 217,
    "BoilingPoint": 685,
    "Density": 4.79,
    "Abundance": null,
    "Discovery": 1817,
    "ElectronConfiguration": "[Ar] 3d10 4s2 4p4",
    "Energy": 9.7524
  },
  {
    "AtomicNumber": 35,
    "Name": "Bromine",
    "Symbol": "Br",
    "Mass": 79.904,
    "MeltingPoint": -7,
    "BoilingPoint": 59,
    "Density": 3.12,
    "Abundance": null,
    "Discovery": 1826,
    "ElectronConfiguration": "[Ar] 3d10 4s2 4p5",
    "Energy": 11.8138
  },
  {
    "AtomicNumber": 36,
    "Name": "Krypton",
    "Symbol": "Kr",
    "Mass": 83.798,
    "MeltingPoint": -157,
    "BoilingPoint": -153,
    "Density": 3.75,
    "Abundance": null,
    "Discovery": 1898,
    "ElectronConfiguration": "[Ar] 3d10 4s2 4p6",
    "Energy": 13.9996
  },
  {
    "AtomicNumber": 37,
    "Name": "Rubidium",
    "Symbol": "Rb",
    "Mass": 85.4678,
    "MeltingPoint": 39,
    "BoilingPoint": 688,
    "Density": 1.63,
    "Abundance": null,
    "Discovery": 1861,
    "ElectronConfiguration": "[Kr] 5s1",
    "Energy": 4.1771
  },
  {
    "AtomicNumber": 38,
    "Name": "Strontium",
    "Symbol": "Sr",
    "Mass": 87.62,
    "MeltingPoint": 769,
    "BoilingPoint": 1384,
    "Density": 2.54,
    "Abundance": null,
    "Discovery": 1790,
    "ElectronConfiguration": "[Kr] 5s2",
    "Energy": 5.6949
  },
  {
    "AtomicNumber": 39,
    "Name": "Yttrium",
    "Symbol": "Y",
    "Mass": 88.90585,
    "MeltingPoint": 1523,
    "BoilingPoint": 3337,
    "Density": 4.47,
    "Abundance": null,
    "Discovery": 1794,
    "ElectronConfiguration": "[Kr] 4d1 5s2",
    "Energy": 6.2173
  },
  {
    "AtomicNumber": 40,
    "Name": "Zirconium",
    "Symbol": "Zr",
    "Mass": 91.224,
    "MeltingPoint": 1852,
    "BoilingPoint": 4377,
    "Density": 6.51,
    "Abundance": 0.025,
    "Discovery": 1789,
    "ElectronConfiguration": "[Kr] 4d2 5s2",
    "Energy": 6.6339
  },
  {
    "AtomicNumber": 41,
    "Name": "Niobium",
    "Symbol": "Nb",
    "Mass": 92.90638,
    "MeltingPoint": 2468,
    "BoilingPoint": 4927,
    "Density": 8.57,
    "Abundance": null,
    "Discovery": 1801,
    "ElectronConfiguration": "[Kr] 4d4 5s1",
    "Energy": 6.7589
  },
  {
    "AtomicNumber": 42,
    "Name": "Molybdenum",
    "Symbol": "Mo",
    "Mass": 95.96,
    "MeltingPoint": 2617,
    "BoilingPoint": 4612,
    "Density": 10.22,
    "Abundance": null,
    "Discovery": 1781,
    "ElectronConfiguration": "[Kr] 4d5 5s1",
    "Energy": 7.0924
  },
  {
    "AtomicNumber": 43,
    "Name": "Technetium",
    "Symbol": "Tc",
    "Mass": 98.0,
    "MeltingPoint": 2200,
    "BoilingPoint": 4877,
    "Density": 11.5,
    "Abundance": null,
    "Discovery": 1937,
    "ElectronConfiguration": "[Kr] 4d5 5s2",
    "Energy": 7.28
  },
  {
    "AtomicNumber": 44,
    "Name": "Ruthenium",
    "Symbol": "Ru",
    "Mass": 101.07,
    "MeltingPoint": 2250,
    "BoilingPoint": 3900,
    "Density": 12.37,
    "Abundance": null,
    "Discovery": 1844,
    "ElectronConfiguration": "[Kr] 4d7 5s1",
    "Energy": 7.3605
  },
  {
    "AtomicNumber": 45,
    "Name": "Rhodium",
    "Symbol": "Rh",
    "Mass": 102.9055,
    "MeltingPoint": 1966,
    "BoilingPoint": 3727,
    "Density": 12.41,
    "Abundance": null,
    "Discovery": 1803,
    "ElectronConfiguration": "[Kr] 4d8 5s1",
    "Energy": 7.4589
  },
  {
    "AtomicNumber": 46,
    "Name": "Palladium",
    "Symbol": "Pd",
    "Mass": 106.42,
    "MeltingPoint": 1552,
    "BoilingPoint": 2927,
    "Density": 12.02,
    "Abundance": null,
    "Discovery": 1803,
    "ElectronConfiguration": "[Kr] 4d10",
    "Energy": 8.3369
  },
  {
    "AtomicNumber": 47,
    "Name": "Silver",
    "Symbol": "Ag",
    "Mass": 107.8682,
    "MeltingPoint": 962,
    "BoilingPoint": 2212,
    "Density": 10.5,
    "Abundance": null,
    "Discovery": null,
    "ElectronConfiguration": "[Kr] 4d10 5s1",
    "Energy": 7.5762
  },
  {
    "AtomicNumber": 48,
    "Name": "Cadmium",
    "Symbol": "Cd",
    "Mass": 112.411,
    "MeltingPoint": 321,
    "BoilingPoint": 765,
    "Density": 8.65,
    "Abundance": null,
    "Discovery": 1817,
    "ElectronConfiguration": "[Kr] 4d10 5s2",
    "Energy": 8.9938
  },
  {
    "AtomicNumber": 49,
    "Name": "Indium",
    "Symbol": "In",
    "Mass": 114.818,
    "MeltingPoint": 157,
    "BoilingPoint": 2000,
    "Density": 7.31,
    "Abundance": null,
    "Discovery": 1863,
    "ElectronConfiguration": "[Kr] 4d10 5s2 5p1",
    "Energy": 5.7864
  },
  {
    "AtomicNumber": 50,
    "Name": "Tin",
    "Symbol": "Sn",
    "Mass": 118.71,
    "MeltingPoint": 232,
    "BoilingPoint": 2270,
    "Density": 7.31,
    "Abundance": null,
    "Discovery": null,
    "ElectronConfiguration": "[Kr] 4d10 5s2 5p2",
    "Energy": 7.3439
  },
  {
    "AtomicNumber": 51,
    "Name": "Antimony",
    "Symbol": "Sb",
    "Mass": 121.76,
    "MeltingPoint": 630,
    "BoilingPoint": 1750,
    "Density": 6.68,
    "Abundance": null,
    "Discovery": null,
    "ElectronConfiguration": "[Kr] 4d10 5s2 5p3",
    "Energy": 8.6084
  },
  {
    "AtomicNumber": 52,
    "Name": "Tellurium",
    "Symbol": "Te",
    "Mass": 127.6,
    "MeltingPoint": 449,
    "BoilingPoint": 990,
    "Density": 6.24,
    "Abundance": null,
    "Discovery": 1783,
    "ElectronConfiguration": "[Kr] 4d10 5s2 5p4",
    "Energy": 9.0096
  },
  {
    "AtomicNumber": 53,
    "Name": "Iodine",
    "Symbol": "I",
    "Mass": 126.90447,
    "MeltingPoint": 114,
    "BoilingPoint": 184,
    "Density": 4.93,
    "Abundance": null,
    "Discovery": 1811,
    "ElectronConfiguration": "[Kr] 4d10 5s2 5p5",
    "Energy": 10.4513
  },
  {
    "AtomicNumber": 54,
    "Name": "Xenon",
    "Symbol": "Xe",
    "Mass": 131.293,
    "MeltingPoint": -112,
    "BoilingPoint": -108,
    "Density": 5.9,
    "Abundance": null,
    "Discovery": 1898,
    "ElectronConfiguration": "[Kr] 4d10 5s2 5p6",
    "Energy": 12.1298
  },
  {
    "AtomicNumber": 55,
    "Name": "Caesium",
    "Symbol": "Cs",
    "Mass": 132.90546,
    "MeltingPoint": 29,
    "BoilingPoint": 678,
    "Density": 1.87,
    "Abundance": null,
    "Discovery": 1860,
    "ElectronConfiguration": "[Xe] 6s1",
    "Energy": 3.8939
  },
  {
    "AtomicNumber": 56,
    "Name": "Barium",
    "Symbol": "Ba",
    "Mass": 137.327,
    "MeltingPoint": 725,
    "BoilingPoint": 1140,
    "Density": 3.59,
    "Abundance": 0.05,
    "Discovery": 1808,
    "ElectronConfiguration": "[Xe] 6s2",
    "Energy": 5.2117
  },
  {
    "AtomicNumber": 57,
    "Name": "Lanthanum",
    "Symbol": "La",
    "Mass": 138.90547,
    "MeltingPoint": 920,
    "BoilingPoint": 3469,
    "Density": 6.15,
    "Abundance": null,
    "Discovery": 1839,
    "ElectronConfiguration": "[Xe] 5d1 6s2",
    "Energy": 5.5769
  },
  {
    "AtomicNumber": 58,
    "Name": "Cerium",
    "Symbol": "Ce",
    "Mass": 140.116,
    "MeltingPoint": 795,
    "BoilingPoint": 3257,
    "Density": 6.77,
    "Abundance": null,
    "Discovery": 1803,
    "ElectronConfiguration": "[Xe] 4f1 5d1 6s2",
    "Energy": 5.5387
  },
  {
    "AtomicNumber": 59,
    "Name": "Praseodymium",
    "Symbol": "Pr",
    "Mass": 140.90765,
    "MeltingPoint": 935,
    "BoilingPoint": 3127,
    "Density": 6.77,
    "Abundance": null,
    "Discovery": 1885,
    "ElectronConfiguration": "[Xe] 4f3 6s2",
    "Energy": 5.473
  },
  {
    "AtomicNumber": 60,
    "Name": "Neodymium",
    "Symbol": "Nd",
    "Mass": 144.242,
    "MeltingPoint": 1010,
    "BoilingPoint": 3127,
    "Density": 7.01,
    "Abundance": null,
    "Discovery": 1885,
    "ElectronConfiguration": "[Xe] 4f4 6s2",
    "Energy": 5.525
  },
  {
    "AtomicNumber": 61,
    "Name": "Promethium",
    "Symbol": "Pm",
    "Mass": 145.0,
    "MeltingPoint": 1100,
    "BoilingPoint": 3000,
    "Density": 7.3,
    "Abundance": null,
    "Discovery": 1945,
    "ElectronConfiguration": "[Xe] 4f5 6s2",
    "Energy": 5.582
  },
  {
    "AtomicNumber": 62,
    "Name": "Samarium",
    "Symbol": "Sm",
    "Mass": 150.36,
    "MeltingPoint": 1072,
    "BoilingPoint": 1900,
    "Density": 7.52,
    "Abundance": null,
    "Discovery": 1879,
    "ElectronConfiguration": "[Xe] 4f6 6s2",
    "Energy": 5.6437
  },
  {
    "AtomicNumber": 63,
    "Name": "Europium",
    "Symbol": "Eu",
    "Mass": 151.964,
    "MeltingPoint": 822,
    "BoilingPoint": 1597,
    "Density": 5.24,
    "Abundance": null,
    "Discovery": 1901,
    "ElectronConfiguration": "[Xe] 4f7 6s2",
    "Energy": 5.6704
  },
  {
    "AtomicNumber": 64,
    "Name": "Gadolinium",
    "Symbol": "Gd",
    "Mass": 157.25,
    "MeltingPoint": 1311,
    "BoilingPoint": 3233,
    "Density": 7.9,
    "Abundance": null,
    "Discovery": 1880,
    "ElectronConfiguration": "[Xe] 4f7 5d1 6s2",
    "Energy": 6.1501
  },
  {
    "AtomicNumber": 65,
    "Name": "Terbium",
    "Symbol": "Tb",
    "Mass": 158.92535,
    "MeltingPoint": 1360,
    "BoilingPoint": 3041,
    "Density": 8.23,
    "Abundance": null,
    "Discovery": 1843,
    "ElectronConfiguration": "[Xe] 4f9 6s2",
    "Energy": 5.8638
  },
  {
    "AtomicNumber": 66,
    "Name": "Dysprosium",
    "Symbol": "Dy",
    "Mass": 162.5,
    "MeltingPoint": 1412,
    "BoilingPoint": 2562,
    "Density": 8.55,
    "Abundance": null,
    "Discovery": 1886,
    "ElectronConfiguration": "[Xe] 4f10 6s2",
    "Energy": 5.9389
  },
  {
    "AtomicNumber": 67,
    "Name": "Holmium",
    "Symbol": "Ho",
    "Mass": 164.93031,
    "MeltingPoint": 1470,
    "BoilingPoint": 2720,
    "Density": 8.8,
    "Abundance": null,
    "Discovery": 1867,
    "ElectronConfiguration": "[Xe] 4f11 6s2",
    "Energy": 6.0215
  },
  {
    "AtomicNumber": 68,
    "Name": "Erbium",
    "Symbol": "Er",
    "Mass": 167.259,
    "MeltingPoint": 1522,
    "BoilingPoint": 2510,
    "Density": 9.07,
    "Abundance": null,
    "Discovery": 1842,
    "ElectronConfiguration": "[Xe] 4f12 6s2",
    "Energy": 6.1077
  },
  {
    "AtomicNumber": 69,
    "Name": "Thulium",
    "Symbol": "Tm",
    "Mass": 168.9342,
    "MeltingPoint": 1545,
    "BoilingPoint": 1727,
    "Density": 9.32,
    "Abundance": null,
    "Discovery": 1879,
    "ElectronConfiguration": "[Xe] 4f13 6s2",
    "Energy": 6.1843
  },
  {
    "AtomicNumber": 70,
    "Name": "Ytterbium",
    "Symbol": "Yb",
    "Mass": 173.054,
    "MeltingPoint": 824,
    "BoilingPoint": 1466,
    "Density": 6.9,
    "Abundance": null,
    "Discovery": 1878,
    "ElectronConfiguration": "[Xe] 4f14 6s2",
    "Energy": 6.2542
  },
  {
    "AtomicNumber": 71,
    "Name": "Lutetium",
    "Symbol": "Lu",
    "Mass": 174.9668,
    "MeltingPoint": 1656,
    "BoilingPoint": 3315,
    "Density": 9.84,
    "Abundance": null,
    "Discovery": 1907,
    "ElectronConfiguration": "[Xe] 4f14 5d1 6s2",
    "Energy": 5.4259
  },
  {
    "AtomicNumber": 72,
    "Name": "Hafnium",
    "Symbol": "Hf",
    "Mass": 178.49,
    "MeltingPoint": 2150,
    "BoilingPoint": 5400,
    "Density": 13.31,
    "Abundance": null,
    "Discovery": 1923,
    "ElectronConfiguration": "[Xe] 4f14 5d2 6s2",
    "Energy": 6.8251
  },
  {
    "AtomicNumber": 73,
    "Name": "Tantalum",
    "Symbol": "Ta",
    "Mass": 180.94788,
    "MeltingPoint": 2996,
    "BoilingPoint": 5425,
    "Density": 16.65,
    "Abundance": null,
    "Discovery": 1802,
    "ElectronConfiguration": "[Xe] 4f14 5d3 6s2",
    "Energy": 7.5496
  },
  {
    "AtomicNumber": 74,
    "Name": "Tungsten",
    "Symbol": "W",
    "Mass": 183.84,
    "MeltingPoint": 3410,
    "BoilingPoint": 5660,
    "Density": 19.35,
    "Abundance": null,
    "Discovery": 1783,
    "ElectronConfiguration": "[Xe] 4f14 5d4 6s2",
    "Energy": 7.864
  },
  {
    "AtomicNumber": 75,
    "Name": "Rhenium",
    "Symbol": "Re",
    "Mass": 186.207,
    "MeltingPoint": 3180,
    "BoilingPoint": 5627,
    "Density": 21.04,
    "Abundance": null,
    "Discovery": 1925,
    "ElectronConfiguration": "[Xe] 4f14 5d5 6s2",
    "Energy": 7.8335
  },
  {
    "AtomicNumber": 76,
    "Name": "Osmium",
    "Symbol": "Os",
    "Mass": 190.23,
    "MeltingPoint": 3045,
    "BoilingPoint": 5027,
    "Density": 22.6,
    "Abundance": null,
    "Discovery": 1803,
    "ElectronConfiguration": "[Xe] 4f14 5d6 6s2",
    "Energy": 8.4382
  },
  {
    "AtomicNumber": 77,
    "Name": "Iridium",
    "Symbol": "Ir",
    "Mass": 192.217,
    "MeltingPoint": 2410,
    "BoilingPoint": 4527,
    "Density": 22.4,
    "Abundance": null,
    "Discovery": 1803,
    "ElectronConfiguration": "[Xe] 4f14 5d7 6s2",
    "Energy": 8.967
  },
  {
    "AtomicNumber": 78,
    "Name": "Platinum",
    "Symbol": "Pt",
    "Mass": 195.084,
    "MeltingPoint": 1772,
    "BoilingPoint": 3827,
    "Density": 21.45,
    "Abundance": null,
    "Discovery": 1735,
    "ElectronConfiguration": "[Xe] 4f14 5d9 6s1",
    "Energy": 8.9587
  },
  {
    "AtomicNumber": 79,
    "Name": "Gold",
    "Symbol": "Au",
    "Mass": 196.96657,
    "MeltingPoint": 1064,
    "BoilingPoint": 2807,
    "Density": 19.32,
    "Abundance": null,
    "Discovery": null,
    "ElectronConfiguration": "[Xe] 4f14 5d10 6s1",
    "Energy": 9.2255
  },
  {
    "AtomicNumber": 80,
    "Name": "Mercury",
    "Symbol": "Hg",
    "Mass": 200.59,
    "MeltingPoint": -39,
    "BoilingPoint": 357,
    "Density": 13.55,
    "Abundance": null,
    "Discovery": null,
    "ElectronConfiguration": "[Xe] 4f14 5d10 6s2",
    "Energy": 10.4375
  },
  {
    "AtomicNumber": 81,
    "Name": "Thallium",
    "Symbol": "Tl",
    "Mass": 204.3833,
    "MeltingPoint": 303,
    "BoilingPoint": 1457,
    "Density": 11.85,
    "Abundance": null,
    "Discovery": 1861,
    "ElectronConfiguration": "[Xe] 4f14 5d10 6s2 6p1",
    "Energy": 6.1082
  },
  {
    "AtomicNumber": 82,
    "Name": "Lead",
    "Symbol": "Pb",
    "Mass": 207.2,
    "MeltingPoint": 327,
    "BoilingPoint": 1740,
    "Density": 11.35,
    "Abundance": null,
    "Discovery": null,
    "ElectronConfiguration": "[Xe] 4f14 5d10 6s2 6p2",
    "Energy": 7.4167
  },
  {
    "AtomicNumber": 83,
    "Name": "Bismuth",
    "Symbol": "Bi",
    "Mass": 208.9804,
    "MeltingPoint": 271,
    "BoilingPoint": 1560,
    "Density": 9.75,
    "Abundance": null,
    "Discovery": null,
    "ElectronConfiguration": "[Xe] 4f14 5d10 6s2 6p3",
    "Energy": 7.2856
  },
  {
    "AtomicNumber": 84,
    "Name": "Polonium",
    "Symbol": "Po",
    "Mass": 209.0,
    "MeltingPoint": 254,
    "BoilingPoint": 962,
    "Density": 9.3,
    "Abundance": null,
    "Discovery": 1898,
    "ElectronConfiguration": "[Xe] 4f14 5d10 6s2 6p4",
    "Energy": 8.417
  },
  {
    "AtomicNumber": 85,
    "Name": "Astatine",
    "Symbol": "At",
    "Mass": 210.0,
    "MeltingPoint": 302,
    "BoilingPoint": 337,
    "Density": null,
    "Abundance": null,
    "Discovery": 1940,
    "ElectronConfiguration": "[Xe] 4f14 5d10 6s2 6p5",
    "Energy": 9.3
  },
  {
    "AtomicNumber": 86,
    "Name": "Radon",
    "Symbol": "Rn",
    "Mass": 222.0,
    "MeltingPoint": -71,
    "BoilingPoint": -62,
    "Density": 9.73,
    "Abundance": null,
    "Discovery": 1900,
    "ElectronConfiguration": "[Xe] 4f14 5d10 6s2 6p6",
    "Energy": 10.7485
  },
  {
    "AtomicNumber": 87,
    "Name": "Francium",
    "Symbol": "Fr",
    "Mass": 223.0,
    "MeltingPoint": 27,
    "BoilingPoint": 677,
    "Density": null,
    "Abundance": null,
    "Discovery": 1939,
    "ElectronConfiguration": "[Rn] 7s1",
    "Energy": 4.0727
  },
  {
    "AtomicNumber": 88,
    "Name": "Radium",
    "Symbol": "Ra",
    "Mass": 226.0,
    "MeltingPoint": 700,
    "BoilingPoint": 1737,
    "Density": 5.5,
    "Abundance": null,
    "Discovery": 1898,
    "ElectronConfiguration": "[Rn] 7s2",
    "Energy": 5.2784
  },
  {
    "AtomicNumber": 89,
    "Name": "Actinium",
    "Symbol": "Ac",
    "Mass": 227.0,
    "MeltingPoint": 1050,
    "BoilingPoint": 3200,
    "Density": 10.07,
    "Abundance": null,
    "Discovery": 1899,
    "ElectronConfiguration": "[Rn] 6d1 7s2",
    "Energy": 5.17
  },
  {
    "AtomicNumber": 90,
    "Name": "Thorium",
    "Symbol": "Th",
    "Mass": 232.03806,
    "MeltingPoint": 1750,
    "BoilingPoint": 4790,
    "Density": 11.72,
    "Abundance": null,
    "Discovery": 1829,
    "ElectronConfiguration": "[Rn] 6d2 7s2",
    "Energy": 6.3067
  },
  {
    "AtomicNumber": 91,
    "Name": "Protactinium",
    "Symbol": "Pa",
    "Mass": 231.03587,
    "MeltingPoint": 1568,
    "BoilingPoint": null,
    "Density": 15.4,
    "Abundance": null,
    "Discovery": 1913,
    "ElectronConfiguration": "[Rn] 5f2 6d1 7s2",
    "Energy": 5.89
  },
  {
    "AtomicNumber": 92,
    "Name": "Uranium",
    "Symbol": "U",
    "Mass": 238.02892,
    "MeltingPoint": 1132,
    "BoilingPoint": 3818,
    "Density": 18.95,
    "Abundance": null,
    "Discovery": 1789,
    "ElectronConfiguration": "[Rn] 5f3 6d1 7s2",
    "Energy": 6.1941
  },
  {
    "AtomicNumber": 93,
    "Name": "Neptunium",
    "Symbol": "Np",
    "Mass": 237.0,
    "MeltingPoint": 640,
    "BoilingPoint": 3902,
    "Density": 20.2,
    "Abundance": null,
    "Discovery": 1940,
    "ElectronConfiguration": "[Rn] 5f4 6d1 7s2",
    "Energy": 6.2657
  },
  {
    "AtomicNumber": 94,
    "Name": "Plutonium",
    "Symbol": "Pu",
    "Mass": 244.0,
    "MeltingPoint": 640,
    "BoilingPoint": 3235,
    "Density": 19.84,
    "Abundance": null,
    "Discovery": 1940,
    "ElectronConfiguration": "[Rn] 5f6 7s2",
    "Energy": 6.0262
  },
  {
    "AtomicNumber": 95,
    "Name": "Americium",
    "Symbol": "Am",
    "Mass": 243.0,
    "MeltingPoint": 994,
    "BoilingPoint": 2607,
    "Density": 13.67,
    "Abundance": null,
    "Discovery": 1944,
    "ElectronConfiguration": "[Rn] 5f7 7s2",
    "Energy": 5.9738
  },
  {
    "AtomicNumber": 96,
    "Name": "Curium",
    "Symbol": "Cm",
    "Mass": 247.0,
    "MeltingPoint": 1340,
    "BoilingPoint": null,
    "Density": 13.5,
    "Abundance": null,
    "Discovery": 1944,
    "ElectronConfiguration": "",
    "Energy": 5.9915
  },
  {
    "AtomicNumber": 97,
    "Name": "Berkelium",
    "Symbol": "Bk",
    "Mass": 247.0,
    "MeltingPoint": 986,
    "BoilingPoint": null,
    "Density": 14.78,
    "Abundance": null,
    "Discovery": 1949,
    "ElectronConfiguration": "",
    "Energy": 6.1979
  },
  {
    "AtomicNumber": 98,
    "Name": "Californium",
    "Symbol": "Cf",
    "Mass": 251.0,
    "MeltingPoint": 900,
    "BoilingPoint": null,
    "Density": 15.1,
    "Abundance": null,
    "Discovery": 1950,
    "ElectronConfiguration": "",
    "Energy": 6.2817
  },
  {
    "AtomicNumber": 99,
    "Name": "Einsteinium",
    "Symbol": "Es",
    "Mass": 252.0,
    "MeltingPoint": 860,
    "BoilingPoint": null,
    "Density": null,
    "Abundance": null,
    "Discovery": 1952,
    "ElectronConfiguration": "",
    "Energy": 6.42
  },
  {
    "AtomicNumber": 100,
    "Name": "Fermium",
    "Symbol": "Fm",
    "Mass": 257.0,
    "MeltingPoint": 1527,
    "BoilingPoint": null,
    "Density": null,
    "Abundance": null,
    "Discovery": 1952,
    "ElectronConfiguration": "",
    "Energy": 6.5
  },
  {
    "AtomicNumber": 101,
    "Name": "Mendelevium",
    "Symbol": "Md",
    "Mass": 258.0,
    "MeltingPoint": null,
    "BoilingPoint": null,
    "Density": null,
    "Abundance": null,
    "Discovery": 1955,
    "ElectronConfiguration": "",
    "Energy": 6.58
  },
  {
    "AtomicNumber": 102,
    "Name": "Nobelium",
    "Symbol": "No",
    "Mass": 259.0,
    "MeltingPoint": 827,
    "BoilingPoint": null,
    "Density": null,
    "Abundance": null,
    "Discovery": 1958,
    "ElectronConfiguration": "",
    "Energy": 6.65
  },
  {
    "AtomicNumber": 103,
    "Name": "Lawrencium",
    "Symbol": "Lr",
    "Mass": 262.0,
    "MeltingPoint": 1627,
    "BoilingPoint": null,
    "Density": null,
    "Abundance": null,
    "Discovery": 1961,
    "ElectronConfiguration": "",
    "Energy": 4.9
  },
  {
    "AtomicNumber": 104,
    "Name": "Rutherfordium",
    "Symbol": "Rf",
    "Mass": 267.0,
    "MeltingPoint": null,
    "BoilingPoint": null,
    "Density": null,
    "Abundance": null,
    "Discovery": 1964,
    "ElectronConfiguration": "",
    "Energy": null
  },
  {
    "AtomicNumber": 105,
    "Name": "Dubnium",
    "Symbol": "Db",
    "Mass": 268.0,
    "MeltingPoint": null,
    "BoilingPoint": null,
    "Density": null,
    "Abundance": null,
    "Discovery": 1967,
    "ElectronConfiguration": "",
    "Energy": null
  },
  {
    "AtomicNumber": 106,
    "Name": "Seaborgium",
    "Symbol": "Sg",
    "Mass": 271.0,
    "MeltingPoint": null,
    "BoilingPoint": null,
    "Density": null,
    "Abundance": null,
    "Discovery": 1974,
    "ElectronConfiguration": "",
    "Energy": null
  },
  {
    "AtomicNumber": 107,
    "Name": "Bohrium",
    "Symbol": "Bh",
    "Mass": 272.0,
    "MeltingPoint": null,
    "BoilingPoint": null,
    "Density": null,
    "Abundance": null,
    "Discovery": 1981,
    "ElectronConfiguration": "",
    "Energy": null
  },
  {
    "AtomicNumber": 108,
    "Name": "Hassium",
    "Symbol": "Hs",
    "Mass": 270.0,
    "MeltingPoint": null,
    "BoilingPoint": null,
    "Density": null,
    "Abundance": null,
    "Discovery": 1984,
    "ElectronConfiguration": "",
    "Energy": null
  },
  {
    "AtomicNumber": 109,
    "Name": "Meitnerium",
    "Symbol": "Mt",
    "Mass": 276.0,
    "MeltingPoint": null,
    "BoilingPoint": null,
    "Density": null,
    "Abundance": null,
    "Discovery": 1982,
    "ElectronConfiguration": "",
    "Energy": null
  },
  {
    "AtomicNumber": 110,
    "Name": "Darmstadtium",
    "Symbol": "Ds",
    "Mass": 281.0,
    "MeltingPoint": null,
    "BoilingPoint": null,
    "Density": null,
    "Abundance": null,
    "Discovery": null,
    "ElectronConfiguration": "",
    "Energy": null
  },
  {
    "AtomicNumber": 111,
    "Name": "Roentgenium",
    "Symbol": "Rg",
    "Mass": 280.0,
    "MeltingPoint": null,
    "BoilingPoint": null,
    "Density": null,
    "Abundance": null,
    "Discovery": null,
    "ElectronConfiguration": "",
    "Energy": null
  },
  {
    "AtomicNumber": 112,
    "Name": "Copernicium",
    "Symbol": "Cn",
    "Mass": 285.0,
    "MeltingPoint": null,
    "BoilingPoint": null,
    "Density": null,
    "Abundance": null,
    "Discovery": null,
    "ElectronConfiguration": "",
    "Energy": null
  },
  {
    "AtomicNumber": 113,
    "Name": "Ununtrium",
    "Symbol": "Uut",
    "Mass": 284.0,
    "MeltingPoint": null,
    "BoilingPoint": null,
    "Density": null,
    "Abundance": null,
    "Discovery": null,
    "ElectronConfiguration": "",
    "Energy": null
  },
  {
    "AtomicNumber": 114,
    "Name": "Flerovium",
    "Symbol": "Fl",
    "Mass": 289.0,
    "MeltingPoint": null,
    "BoilingPoint": null,
    "Density": null,
    "Abundance": null,
    "Discovery": null,
    "ElectronConfiguration": "",
    "Energy": null
  },
  {
    "AtomicNumber": 115,
    "Name": "Ununpentium",
    "Symbol": "Uup",
    "Mass": 288.0,
    "MeltingPoint": null,
    "BoilingPoint": null,
    "Density": null,
    "Abundance": null,
    "Discovery": null,
    "ElectronConfiguration": "",
    "Energy": null
  },
  {
    "AtomicNumber": 116,
    "Name": "Livermorium",
    "Symbol": "Lv",
    "Mass": 293.0,
    "MeltingPoint": null,
    "BoilingPoint": null,
    "Density": null,
    "Abundance": null,
    "Discovery": null,
    "ElectronConfiguration": "",
    "Energy": null
  },
  {
    "AtomicNumber": 117,
    "Name": "Ununseptium",
    "Symbol": "Uus",
    "Mass": 294.0,
    "MeltingPoint": null,
    "BoilingPoint": null,
    "Density": null,
    "Abundance": null,
    "Discovery": null,
    "ElectronConfiguration": "",
    "Energy": null
  },
  {
    "AtomicNumber": 118,
    "Name": "Ununoctium",
    "Symbol": "Uuo",
    "Mass": 294.0,
    "MeltingPoint": null,
    "BoilingPoint": null,
    "Density": null,
    "Abundance": null,
    "Discovery": null,
    "ElectronConfiguration": "",
    "Energy": null
  }
]